PSF NAMD

       7 !NTITLE
 REMARKS original generated structure x-plor psf file
 REMARKS 3 patches were applied to the molecule.
 REMARKS topology /Users/sritaymistry/Downloads/lignintest/LigninBuilderPlugin/top_lignin.top 
 REMARKS segment L0 { first NONE; last NONE; auto angles dihedrals }
 REMARKS patch BB L0:1  L0:2  
 REMARKS patch BO4 L0:3  L0:2  
 REMARKS patch BO4 L0:4  L0:3  

     112 !NATOM
       1 L0   1    GUAI C6   CLG2R61  -0.115000       12.0110           0
       2 L0   1    GUAI H6   HLGR61   0.115000        1.0080           0
       3 L0   1    GUAI C2   CLG2R61  -0.115000       12.0110           0
       4 L0   1    GUAI H2   HLGR61   0.115000        1.0080           0
       5 L0   1    GUAI C3   CLG2R6B   0.115000       12.0110           0
       6 L0   1    GUAI O3   OLG301  -0.329000       15.9994           0
       7 L0   1    GUAI C10  CLG331  -0.056000       12.0110           0
       8 L0   1    GUAI H101 HLGA3   0.090000        1.0080           0
       9 L0   1    GUAI H102 HLGA3   0.090000        1.0080           0
      10 L0   1    GUAI H103 HLGA3   0.090000        1.0080           0
      11 L0   1    GUAI C4   CLG2R6A   0.075000       12.0110           0
      12 L0   1    GUAI O4   OLG311  -0.495000       15.9994           0
      13 L0   1    GUAI HO4  HLGP1   0.420000        1.0080           0
      14 L0   1    GUAI C5   CLG2R61  -0.115000       12.0110           0
      15 L0   1    GUAI H5   HLGR61   0.115000        1.0080           0
      16 L0   1    GUAI C1   CLG2R61   0.000000       12.0110           0
      17 L0   1    GUAI C7   CLG3C51   0.159000       12.0110           0
      18 L0   1    GUAI H7   HLGA1   0.090000        1.0080           0
      19 L0   1    GUAI O7   OLG3C51  -0.403000       15.9994           0
      20 L0   1    GUAI C8   CLG3RC1  -0.124000       12.0110           0
      21 L0   1    GUAI H8   HLGA1   0.090000        1.0080           0
      22 L0   1    GUAI C9   CLG3C52   0.008000       12.0110           0
      23 L0   1    GUAI H91  HLGA2   0.090000        1.0080           0
      24 L0   1    GUAI H92  HLGA2   0.090000        1.0080           0
      25 L0   2    SYR  C6   CLG2R61  -0.115000       12.0110           0
      26 L0   2    SYR  H6   HLGR61   0.115000        1.0080           0
      27 L0   2    SYR  C2   CLG2R61  -0.115000       12.0110           0
      28 L0   2    SYR  H2   HLGR61   0.115000        1.0080           0
      29 L0   2    SYR  C3   CLG2R6B   0.115000       12.0110           0
      30 L0   2    SYR  O3   OLG301  -0.329000       15.9994           0
      31 L0   2    SYR  C10  CLG331  -0.056000       12.0110           0
      32 L0   2    SYR  H101 HLGA3   0.090000        1.0080           0
      33 L0   2    SYR  H102 HLGA3   0.090000        1.0080           0
      34 L0   2    SYR  H103 HLGA3   0.090000        1.0080           0
      35 L0   2    SYR  C4   CLG2R6B   0.147000       12.0110           0
      36 L0   2    SYR  O4   OLG301  -0.349000       15.9994           0
      37 L0   2    SYR  C5   CLG2R6B   0.115000       12.0110           0
      38 L0   2    SYR  O5   OLG301  -0.329000       15.9994           0
      39 L0   2    SYR  C11  CLG331  -0.056000       12.0110           0
      40 L0   2    SYR  H111 HLGA3   0.090000        1.0080           0
      41 L0   2    SYR  H112 HLGA3   0.090000        1.0080           0
      42 L0   2    SYR  H113 HLGA3   0.090000        1.0080           0
      43 L0   2    SYR  C1   CLG2R61   0.000000       12.0110           0
      44 L0   2    SYR  C7   CLG3C51   0.159000       12.0110           0
      45 L0   2    SYR  H7   HLGA1   0.090000        1.0080           0
      46 L0   2    SYR  O7   OLG3C51  -0.403000       15.9994           0
      47 L0   2    SYR  C8   CLG3RC1  -0.124000       12.0110           0
      48 L0   2    SYR  H8   HLGA1   0.090000        1.0080           0
      49 L0   2    SYR  C9   CLG3C52   0.008000       12.0110           0
      50 L0   2    SYR  H91  HLGA2   0.090000        1.0080           0
      51 L0   2    SYR  H92  HLGA2   0.090000        1.0080           0
      52 L0   3    SYR  C6   CLG2R61  -0.115000       12.0110           0
      53 L0   3    SYR  H6   HLGR61   0.115000        1.0080           0
      54 L0   3    SYR  C2   CLG2R61  -0.115000       12.0110           0
      55 L0   3    SYR  H2   HLGR61   0.115000        1.0080           0
      56 L0   3    SYR  C3   CLG2R6B   0.115000       12.0110           0
      57 L0   3    SYR  O3   OLG301  -0.329000       15.9994           0
      58 L0   3    SYR  C10  CLG331  -0.056000       12.0110           0
      59 L0   3    SYR  H101 HLGA3   0.090000        1.0080           0
      60 L0   3    SYR  H102 HLGA3   0.090000        1.0080           0
      61 L0   3    SYR  H103 HLGA3   0.090000        1.0080           0
      62 L0   3    SYR  C4   CLG2R6B   0.147000       12.0110           0
      63 L0   3    SYR  O4   OLG301  -0.349000       15.9994           0
      64 L0   3    SYR  C5   CLG2R6B   0.115000       12.0110           0
      65 L0   3    SYR  O5   OLG301  -0.329000       15.9994           0
      66 L0   3    SYR  C11  CLG331  -0.056000       12.0110           0
      67 L0   3    SYR  H111 HLGA3   0.090000        1.0080           0
      68 L0   3    SYR  H112 HLGA3   0.090000        1.0080           0
      69 L0   3    SYR  H113 HLGA3   0.090000        1.0080           0
      70 L0   3    SYR  C1   CLG2R61   0.000000       12.0110           0
      71 L0   3    SYR  C7   CLG311   0.150000       12.0110           0
      72 L0   3    SYR  H7   HLGA1   0.090000        1.0080           0
      73 L0   3    SYR  O7   OLG311  -0.660000       15.9994           0
      74 L0   3    SYR  HO7  HLGP1   0.420000        1.0080           0
      75 L0   3    SYR  C8   CLG311   0.112000       12.0110           0
      76 L0   3    SYR  H8   HLGA1   0.090000        1.0080           0
      77 L0   3    SYR  C9   CLG321   0.042000       12.0110           0
      78 L0   3    SYR  O9   OLG311  -0.642000       15.9994           0
      79 L0   3    SYR  HO9  HLGP1   0.420000        1.0080           0
      80 L0   3    SYR  H91  HLGA2   0.090000        1.0080           0
      81 L0   3    SYR  H92  HLGA2   0.090000        1.0080           0
      82 L0   4    SYR  C6   CLG2R61  -0.115000       12.0110           0
      83 L0   4    SYR  H6   HLGR61   0.115000        1.0080           0
      84 L0   4    SYR  C2   CLG2R61  -0.115000       12.0110           0
      85 L0   4    SYR  H2   HLGR61   0.115000        1.0080           0
      86 L0   4    SYR  C3   CLG2R6B   0.115000       12.0110           0
      87 L0   4    SYR  O3   OLG301  -0.329000       15.9994           0
      88 L0   4    SYR  C10  CLG331  -0.056000       12.0110           0
      89 L0   4    SYR  H101 HLGA3   0.090000        1.0080           0
      90 L0   4    SYR  H102 HLGA3   0.090000        1.0080           0
      91 L0   4    SYR  H103 HLGA3   0.090000        1.0080           0
      92 L0   4    SYR  C4   CLG2R6A   0.075000       12.0110           0
      93 L0   4    SYR  O4   OLG311  -0.495000       15.9994           0
      94 L0   4    SYR  HO4  HLGP1   0.420000        1.0080           0
      95 L0   4    SYR  C5   CLG2R6B   0.115000       12.0110           0
      96 L0   4    SYR  O5   OLG301  -0.329000       15.9994           0
      97 L0   4    SYR  C11  CLG331  -0.056000       12.0110           0
      98 L0   4    SYR  H111 HLGA3   0.090000        1.0080           0
      99 L0   4    SYR  H112 HLGA3   0.090000        1.0080           0
     100 L0   4    SYR  H113 HLGA3   0.090000        1.0080           0
     101 L0   4    SYR  C1   CLG2R61   0.000000       12.0110           0
     102 L0   4    SYR  C7   CLG311   0.150000       12.0110           0
     103 L0   4    SYR  H7   HLGA1   0.090000        1.0080           0
     104 L0   4    SYR  O7   OLG311  -0.660000       15.9994           0
     105 L0   4    SYR  HO7  HLGP1   0.420000        1.0080           0
     106 L0   4    SYR  C8   CLG311   0.112000       12.0110           0
     107 L0   4    SYR  H8   HLGA1   0.090000        1.0080           0
     108 L0   4    SYR  C9   CLG321   0.042000       12.0110           0
     109 L0   4    SYR  O9   OLG311  -0.642000       15.9994           0
     110 L0   4    SYR  HO9  HLGP1   0.420000        1.0080           0
     111 L0   4    SYR  H91  HLGA2   0.090000        1.0080           0
     112 L0   4    SYR  H92  HLGA2   0.090000        1.0080           0

     117 !NBOND: bonds
       1      14       1       2       1      16       3      16
       3       4       3       5       5      11       5       6
       6       7       7       8       7       9       7      10
      11      12      11      14      12      13      14      15
      16      17      17      18      17      19      17      20
      19      49      20      47      20      21      20      22
      22      46      22      23      22      24      25      37
      25      26      25      43      27      43      27      28
      27      29      29      35      29      30      30      31
      31      32      31      33      31      34      35      36
      35      37      37      38      38      39      39      40
      39      41      39      42      43      44      44      45
      44      46      44      47      47      48      47      49
      49      50      49      51      52      64      52      53
      52      70      54      70      54      55      54      56
      56      62      56      57      57      58      58      59
      58      60      58      61      62      63      62      64
      64      65      65      66      66      67      66      68
      66      69      70      71      71      72      71      73
      71      75      73      74      75      36      75      76
      75      77      77      80      77      81      77      78
      78      79      82      95      82      83      82     101
      84     101      84      85      84      86      86      92
      86      87      87      88      88      89      88      90
      88      91      92      93      92      95      93      94
      95      96      96      97      97      98      97      99
      97     100     101     102     102     103     102     104
     102     106     104     105     106      63     106     107
     106     108     108     111     108     112     108     109
     109     110

     203 !NTHETA: angles
       1      16      17       1      16       3       1      14      15
       1      14      11       2       1      16       3      16      17
       3       5       6       3       5      11       4       3       5
       5      11      14       5      11      12       5       6       7
       6       7      10       6       7       9       6       7       8
       8       7      10       8       7       9       9       7      10
      11      14      15      11      12      13      11       5       6
      12      11      14      14       1      16      14       1       2
      16      17      20      16      17      19      16      17      18
      16       3       5      16       3       4      17      20      22
      17      20      21      17      20      47      17      19      49
      18      17      20      18      17      19      19      49      51
      19      49      50      19      49      47      19      17      20
      20      47      49      20      47      48      20      47      44
      20      22      24      20      22      23      20      22      46
      21      20      22      22      46      44      23      22      24
      25      43      44      25      43      27      25      37      38
      25      37      35      26      25      43      27      43      44
      27      29      30      27      29      35      28      27      29
      29      35      37      29      35      36      29      30      31
      30      31      34      30      31      33      30      31      32
      32      31      34      32      31      33      33      31      34
      35      37      38      35      36      75      35      29      30
      36      75      77      36      75      76      36      35      37
      37      38      39      37      25      43      37      25      26
      38      39      42      38      39      41      38      39      40
      40      39      42      40      39      41      41      39      42
      43      44      47      43      44      46      43      44      45
      43      27      29      43      27      28      44      47      49
      44      47      48      45      44      47      45      44      46
      46      44      47      46      22      24      46      22      23
      47      49      51      47      49      50      47      20      22
      47      20      21      48      47      49      50      49      51
      52      70      71      52      70      54      52      64      65
      52      64      62      53      52      70      54      70      71
      54      56      57      54      56      62      55      54      56
      56      62      64      56      62      63      56      57      58
      57      58      61      57      58      60      57      58      59
      59      58      61      59      58      60      60      58      61
      62      64      65      62      63     106      62      56      57
      63     106     108      63     106     107      63      62      64
      64      65      66      64      52      70      64      52      53
      65      66      69      65      66      68      65      66      67
      67      66      69      67      66      68      68      66      69
      70      71      75      70      71      73      70      71      72
      70      54      56      70      54      55      71      75      77
      71      75      76      71      75      36      71      73      74
      72      71      75      72      71      73      73      71      75
      75      77      78      75      77      81      75      77      80
      76      75      77      77      78      79      80      77      78
      80      77      81      81      77      78      82     101     102
      82     101      84      82      95      96      82      95      92
      83      82     101      84     101     102      84      86      87
      84      86      92      85      84      86      86      92      95
      86      92      93      86      87      88      87      88      91
      87      88      90      87      88      89      89      88      91
      89      88      90      90      88      91      92      95      96
      92      93      94      92      86      87      93      92      95
      95      96      97      95      82     101      95      82      83
      96      97     100      96      97      99      96      97      98
      98      97     100      98      97      99      99      97     100
     101     102     106     101     102     104     101     102     103
     101      84      86     101      84      85     102     106     108
     102     106     107     102     106      63     102     104     105
     103     102     106     103     102     104     104     102     106
     106     108     109     106     108     112     106     108     111
     107     106     108     108     109     110     111     108     109
     111     108     112     112     108     109

     274 !NPHI: dihedrals
       1      16      17      20       1      16      17      19
       1      16      17      18       1      16       3       5
       1      16       3       4       1      14      11      12
       1      14      11       5       2       1      16      17
       2       1      16       3       2       1      14      15
       2       1      14      11       3       5       6       7
       3       5      11      14       3       5      11      12
       3      16      17      20       3      16      17      19
       3      16      17      18       3      16       1      14
       4       3       5       6       4       3       5      11
       4       3      16      17       5       6       7      10
       5       6       7       9       5       6       7       8
       5      11      14      15       5      11      12      13
       5       3      16      17       6       5      11      14
       6       5      11      12       6       5       3      16
       7       6       5      11      11      14       1      16
      11       5       3      16      12      11      14      15
      13      12      11      14      14       1      16      17
      15      14       1      16      16      17      20      22
      16      17      20      21      16      17      20      47
      16      17      19      49      17      20      22      24
      17      20      22      23      17      20      22      46
      17      20      47      49      17      20      47      48
      17      20      47      44      17      19      49      51
      17      19      49      50      17      19      49      47
      18      17      20      22      18      17      20      21
      18      17      20      47      18      17      19      49
      19      49      47      48      19      49      47      44
      19      49      47      20      19      17      20      22
      19      17      20      21      19      17      20      47
      20      22      46      44      20      47      49      51
      20      47      49      50      20      47      44      46
      20      47      44      45      20      47      44      43
      20      17      19      49      21      20      22      24
      21      20      22      23      21      20      22      46
      21      20      47      49      21      20      47      48
      21      20      47      44      22      46      44      47
      22      46      44      45      22      46      44      43
      22      20      47      49      22      20      47      48
      22      20      47      44      23      22      46      44
      23      22      20      47      24      22      46      44
      24      22      20      47      25      43      44      47
      25      43      44      46      25      43      44      45
      25      43      27      29      25      43      27      28
      25      37      38      39      25      37      35      36
      25      37      35      29      26      25      43      44
      26      25      43      27      26      25      37      38
      26      25      37      35      27      29      30      31
      27      29      35      37      27      29      35      36
      27      43      44      47      27      43      44      46
      27      43      44      45      27      43      25      37
      28      27      29      30      28      27      29      35
      28      27      43      44      29      30      31      34
      29      30      31      33      29      30      31      32
      29      35      37      38      29      35      36      75
      29      27      43      44      30      29      35      37
      30      29      35      36      30      29      27      43
      31      30      29      35      35      37      38      39
      35      37      25      43      35      36      75      77
      35      36      75      76      35      36      75      71
      35      29      27      43      36      75      77      78
      36      75      77      81      36      75      77      80
      36      75      71      73      36      75      71      72
      36      75      71      70      36      35      37      38
      37      38      39      42      37      38      39      41
      37      38      39      40      37      35      36      75
      37      25      43      44      38      37      25      43
      43      44      47      49      43      44      47      48
      44      47      49      51      44      47      49      50
      45      44      47      49      45      44      47      48
      46      44      47      49      46      44      47      48
      46      22      20      47      48      47      49      51
      48      47      49      50      52      70      71      75
      52      70      71      73      52      70      71      72
      52      70      54      56      52      70      54      55
      52      64      65      66      52      64      62      63
      52      64      62      56      53      52      70      71
      53      52      70      54      53      52      64      65
      53      52      64      62      54      56      57      58
      54      56      62      64      54      56      62      63
      54      70      71      75      54      70      71      73
      54      70      71      72      54      70      52      64
      55      54      56      57      55      54      56      62
      55      54      70      71      56      57      58      61
      56      57      58      60      56      57      58      59
      56      62      64      65      56      62      63     106
      56      54      70      71      57      56      62      64
      57      56      62      63      57      56      54      70
      58      57      56      62      62      64      65      66
      62      64      52      70      62      63     106     108
      62      63     106     107      62      63     106     102
      62      56      54      70      63     106     108     109
      63     106     108     112      63     106     108     111
      63     106     102     104      63     106     102     103
      63     106     102     101      63      62      64      65
      64      65      66      69      64      65      66      68
      64      65      66      67      64      62      63     106
      64      52      70      71      65      64      52      70
      70      71      75      77      70      71      75      76
      70      71      73      74      71      75      77      78
      71      75      77      81      71      75      77      80
      72      71      75      77      72      71      75      76
      72      71      73      74      73      71      75      77
      73      71      75      76      74      73      71      75
      75      77      78      79      76      75      77      78
      76      75      77      81      76      75      77      80
      79      78      77      81      79      78      77      80
      82     101     102     106      82     101     102     104
      82     101     102     103      82     101      84      86
      82     101      84      85      82      95      96      97
      82      95      92      93      82      95      92      86
      83      82     101     102      83      82     101      84
      83      82      95      96      83      82      95      92
      84      86      87      88      84      86      92      95
      84      86      92      93      84     101     102     106
      84     101     102     104      84     101     102     103
      84     101      82      95      85      84      86      87
      85      84      86      92      85      84     101     102
      86      87      88      91      86      87      88      90
      86      87      88      89      86      92      95      96
      86      92      93      94      86      84     101     102
      87      86      92      95      87      86      92      93
      87      86      84     101      88      87      86      92
      92      95      96      97      92      95      82     101
      92      86      84     101      93      92      95      96
      94      93      92      95      95      96      97     100
      95      96      97      99      95      96      97      98
      95      82     101     102      96      95      82     101
     101     102     106     108     101     102     106     107
     101     102     104     105     102     106     108     109
     102     106     108     112     102     106     108     111
     103     102     106     108     103     102     106     107
     103     102     104     105     104     102     106     108
     104     102     106     107     105     104     102     106
     106     108     109     110     107     106     108     109
     107     106     108     112     107     106     108     111
     110     109     108     112     110     109     108     111

       0 !NIMPHI: impropers


       0 !NDON: donors


       0 !NACC: acceptors


       0 !NNB

       0       0       0       0       0       0       0       0
       0       0       0       0       0       0       0       0
       0       0       0       0       0       0       0       0
       0       0       0       0       0       0       0       0
       0       0       0       0       0       0       0       0
       0       0       0       0       0       0       0       0
       0       0       0       0       0       0       0       0
       0       0       0       0       0       0       0       0
       0       0       0       0       0       0       0       0
       0       0       0       0       0       0       0       0
       0       0       0       0       0       0       0       0
       0       0       0       0       0       0       0       0
       0       0       0       0       0       0       0       0
       0       0       0       0       0       0       0       0

       1       0 !NGRP
       0       0       0

